data_global
_chemical_name_mineral 'Wadsleyite'
loop_
_publ_author_name
'Hazen R M'
'Yang H'
'Prewitt C T'
_journal_name_full 'American Mineralogist'
_journal_volume 85 
_journal_year 2000
_journal_page_first 778
_journal_page_last 783
_publ_section_title
;
 High-pressure crystal chemistry of Fe3+-wadsleyite, beta-Fe2.33Si0.67O4
 Pressure = 0.00 GPa
;
_database_code_amcsd 0002451
_chemical_formula_sum 'Fe2.33 Si.67 O4'
_cell_length_a 5.8490
_cell_length_b 11.8557
_cell_length_c 8.3772
_cell_angle_alpha 90
_cell_angle_beta 90
_cell_angle_gamma 90
_cell_volume 580.908
_exptl_crystal_density_diffrn      4.870
_symmetry_space_group_name_H-M 'I m m a'
loop_
_space_group_symop_operation_xyz
  'x,y,z'
  '1/2+x,1/2+y,1/2+z'
  'x,1/2-y,z'
  '1/2+x,-y,1/2+z'
  '-x,1/2+y,-z'
  '1/2-x,+y,1/2-z'
  '-x,y,z'
  '1/2-x,1/2+y,1/2+z'
  'x,-y,-z'
  '1/2+x,1/2-y,1/2-z'
  'x,1/2+y,-z'
  '1/2+x,+y,1/2-z'
  '-x,1/2-y,z'
  '1/2-x,-y,1/2+z'
  '-x,-y,-z'
  '1/2-x,1/2-y,1/2-z'
loop_
_atom_site_label
_atom_site_fract_x
_atom_site_fract_y
_atom_site_fract_z
_atom_site_occupancy
_atom_site_U_iso_or_equiv
Fe1   0.00000   0.00000   0.00000   1.00000   0.00849
Fe2   0.00000   0.25000   0.96930   1.00000   0.00646
Fe3   0.25000   0.12460   0.25000   1.00000   0.00899
SiT   0.00000   0.12020   0.61790   0.67000   0.00557
FeT   0.00000   0.12020   0.61790   0.33000   0.00557
O1   0.00000   0.25000   0.22570   1.00000   0.01140
O2   0.00000   0.25000   0.72070   1.00000   0.01646
O3   0.00000   0.99200   0.25480   1.00000   0.01140
O4   0.25790   0.12230   0.99910   1.00000   0.01393

