data_global
_chemical_name_mineral 'Hedenbergite'
loop_
_publ_author_name
'Zhang L'
'Ahsbahs H'
'Hafner S S'
'Kutoglu A'
_journal_name_full 'American Mineralogist'
_journal_volume 82 
_journal_year 1997
_journal_page_first 245
_journal_page_last 258
_publ_section_title
;
 Single-crystal compression and crystal structure of clinopyroxene up to 10 GPa
 Sample: at P = 0.0 GPa
 Note: cell parameters obtained by linear regression
;
_database_code_amcsd 0001861
_chemical_formula_sum 'Ca Fe Si2 O6'
_cell_length_a 9.8389
_cell_length_b 9.0214
_cell_length_c 5.2424
_cell_angle_alpha 90
_cell_angle_beta 104.797
_cell_angle_gamma 90
_cell_volume 449.887
_exptl_crystal_density_diffrn      3.663
_symmetry_space_group_name_H-M 'C 1 2/c 1'
loop_
_space_group_symop_operation_xyz
  'x,y,z'
  '1/2+x,1/2+y,z'
  'x,-y,1/2+z'
  '1/2+x,1/2-y,1/2+z'
  '-x,y,1/2-z'
  '1/2-x,1/2+y,1/2-z'
  '-x,-y,-z'
  '1/2-x,1/2-y,-z'
loop_
_atom_site_label
_atom_site_fract_x
_atom_site_fract_y
_atom_site_fract_z
_atom_site_U_iso_or_equiv
Ca   0.00000   0.29953   0.25000   0.00861
Fe   0.00000   0.90720   0.25000   0.00557
Si   0.28784   0.09250   0.23270   0.00557
O1   0.11965   0.08995   0.15206   0.00709
O2   0.36290   0.24596   0.32346   0.01026
O3   0.35021   0.01994   0.99292   0.00836

