data_global
_chemical_name_mineral 'Chlorite'
loop_
_publ_author_name
'Zanazzi P F'
'Montagnoli M'
'Nazzareni S'
'Comodi P'
_journal_name_full 'American Mineralogist'
_journal_volume 92 
_journal_year 2007
_journal_page_first 655
_journal_page_last 661
_publ_section_title
;
 Structural effects of pressure on monoclinic chlorite: a single-crystal study
 Sample: P = 0.77 GPa
;
_database_code_amcsd 0004285
_chemical_compound_source 'Alpe Raguzzolo, Val Malenco, Italy'
_chemical_formula_sum 'Mg2.292 Fe.255 Al.865 Si1.588 O9 H4'
_cell_length_a 5.327
_cell_length_b 9.227
_cell_length_c 14.23
_cell_angle_alpha 90
_cell_angle_beta 96.9
_cell_angle_gamma 90
_cell_volume 694.370
_exptl_crystal_density_diffrn      2.735
_symmetry_space_group_name_H-M 'C 1 2/m 1'
loop_
_space_group_symop_operation_xyz
  'x,y,z'
  '1/2+x,1/2+y,z'
  'x,-y,z'
  '1/2+x,1/2-y,z'
  '-x,y,-z'
  '1/2-x,1/2+y,-z'
  '-x,-y,-z'
  '1/2-x,1/2-y,-z'
loop_
_atom_site_label
_atom_site_fract_x
_atom_site_fract_y
_atom_site_fract_z
_atom_site_occupancy
_atom_site_U_iso_or_equiv
MgM1   0.00000   0.00000   0.00000   0.76400   0.00600
FeM1   0.00000   0.00000   0.00000   0.08500   0.00600
AlM1   0.00000   0.00000   0.00000   0.15100   0.00600
MgM2   0.00000   0.33260   0.00000   0.76400   0.00700
FeM2   0.00000   0.33260   0.00000   0.08500   0.00700
AlM2   0.00000   0.33260   0.00000   0.15100   0.00700
MgM3   0.00000   0.16740   0.50000   0.76400   0.00600
FeM3   0.00000   0.16740   0.50000   0.08500   0.00600
AlM3   0.00000   0.16740   0.50000   0.15100   0.00600
MgM4   0.00000   0.50000   0.50000   0.76400   0.00600
FeM4   0.00000   0.50000   0.50000   0.08500   0.00600
AlM4   0.00000   0.50000   0.50000   0.15100   0.00600
SiT   0.22970   0.16670   0.19330   0.79400   0.01000
AlT   0.22970   0.16670   0.19330   0.20600   0.01000
O1   0.19200   0.16680   0.07800   1.00000   0.00600
O2   0.20900   0.00000   0.23300   1.00000   0.01400
O3   0.50770   0.23390   0.23400   1.00000   0.01500
O-H1   0.19200   0.50000   0.07200   1.00000   0.01100
O-H2   0.15200   0.00000   0.42500   1.00000   0.01300
O-H3   0.14100   0.33680   0.42700   1.00000   0.01500

