data_global
_chemical_name_mineral 'Aegirine'
loop_
_publ_author_name
'Redhammer G J'
'Amthauer G'
'Roth G'
'Tippelt G'
'Lottermoser W'
_journal_name_full 'American Mineralogist'
_journal_volume 91 
_journal_year 2006
_journal_page_first 1271
_journal_page_last 1292
_publ_section_title
;
 Single crystal X-ray diffraction and temperature dependent 57Fe Mossbauer
 spectroscopy on the hedenbergite - aegirine (Ca,Na)(Fe2+,Fe3+)Si2O6 solid solution
 Sample: nahp22, T = 298 K
;
_database_code_amcsd 0004215
_chemical_compound_source 'Synthetic'
_chemical_formula_sum 'Na Fe Si2 O6'
_cell_length_a 9.6554
_cell_length_b 8.7952
_cell_length_c 5.2942
_cell_angle_alpha 90
_cell_angle_beta 107.396
_cell_angle_gamma 90
_cell_volume 429.026
_exptl_crystal_density_diffrn      3.576
_symmetry_space_group_name_H-M 'C 1 2/c 1'
loop_
_space_group_symop_operation_xyz
  'x,y,z'
  '1/2+x,1/2+y,z'
  'x,-y,1/2+z'
  '1/2+x,1/2-y,1/2+z'
  '-x,y,1/2-z'
  '1/2-x,1/2+y,1/2-z'
  '-x,-y,-z'
  '1/2-x,1/2-y,-z'
loop_
_atom_site_label
_atom_site_fract_x
_atom_site_fract_y
_atom_site_fract_z
_atom_site_U_iso_or_equiv
Na2   0.00000   0.29880   0.25000   0.00940
Fe1   0.00000   0.89900   0.25000   0.00250
Si   0.29080   0.08960   0.23600   0.00220
O1   0.11430   0.07850   0.13840   0.00310
O2   0.35910   0.25530   0.30150   0.00620
O3   0.35230   0.00760   0.01300   0.00500

